# vtk DataFile Version 4.0
vtk output
ASCII
DATASET UNSTRUCTURED_GRID
POINTS 64585 float
1.96032e-037 0 1.9602e-037 127.033 20.0025 0 173.227 20.0025 0 
127.033 20.0025 10 173.227 20.0025 10 129.343 24.003 0 
175.536 24.003 0 129.343 24.003 10 175.536 24.003 10 
127.033 20.0025 10 173.227 20.0025 10 127.033 20.0025 20 
173.227 20.0025 20 129.343 24.003 10 175.536 24.003 10 
129.343 24.003 20 175.536 24.003 20 127.033 20.0025 20 
173.227 20.0025 20 127.033 20.0025 30 173.227 20.0025 30 
129.343 24.003 20 175.536 24.003 20 129.343 24.003 30 
175.536 24.003 30 127.033 20.0025 30 173.227 20.0025 30 
127.033 20.0025 40 173.227 20.0025 40 129.343 24.003 30 
175.536 24.003 30 129.343 24.003 40 175.536 24.003 40 
127.033 20.0025 40 173.227 20.0025 40 127.033 20.0025 50 
173.227 20.0025 50 129.343 24.003 40 175.536 24.003 40 
129.343 24.003 50 175.536 24.003 50 127.033 20.0025 50 
173.227 20.0025 50 127.033 20.0025 60 173.227 20.0025 60 
129.343 24.003 50 175.536 24.003 50 129.343 24.003 60 
175.536 24.003 60 127.033 20.0025 60 173.227 20.0025 60 
127.033 20.0025 70 173.227 20.0025 70 129.343 24.003 60 
175.536 24.003 60 129.343 24.003 70 175.536 24.003 70 
127.033 20.0025 70 173.227 20.0025 70 127.033 20.0025 80 
173.227 20.0025 80 129.343 24.003 70 175.536 24.003 70 
129.343 24.003 80 175.536 24.003 80 127.033 20.0025 80 
173.227 20.0025 80 127.033 20.0025 90 173.227 20.0025 90 
129.343 24.003 80 175.536 24.003 80 129.343 24.003 90 
175.536 24.003 90 127.033 20.0025 90 173.227 20.0025 90 
127.033 20.0025 100 173.227 20.0025 100 129.343 24.003 90 
175.536 24.003 90 129.343 24.003 100 175.536 24.003 100 
127.033 20.0025 100 173.227 20.0025 100 127.033 20.0025 110 
173.227 20.0025 110 129.343 24.003 100 175.536 24.003 100 
129.343 24.003 110 175.536 24.003 110 127.033 20.0025 110 
173.227 20.0025 110 127.033 20.0025 120 173.227 20.0025 120 
129.343 24.003 110 175.536 24.003 110 129.343 24.003 120 
175.536 24.003 120 127.033 20.0025 120 173.227 20.0025 120 
127.033 20.0025 130 173.227 20.0025 130 129.343 24.003 120 
175.536 24.003 120 129.343 24.003 130 175.536 24.003 130 
127.033 20.0025 130 173.227 20.0025 130 127.033 20.0025 140 
173.227 20.0025 140 129.343 24.003 130 175.536 24.003 130 
129.343 24.003 140 175.536 24.003 140 127.033 20.0025 140 
173.227 20.0025 140 127.033 20.0025 150 173.227 20.0025 150 
129.343 24.003 140 175.536 24.003 140 129.343 24.003 150 
175.536 24.003 150 127.033 20.0025 150 173.227 20.0025 150 
127.033 20.0025 160 173.227 20.0025 160 129.343 24.003 150 
175.536 24.003 150 129.343 24.003 160 175.536 24.003 160 
127.033 20.0025 160 173.227 20.0025 160 127.033 20.0025 170 
173.227 20.0025 170 129.343 24.003 160 175.536 24.003 160 
129.343 24.003 170 175.536 24.003 170 127.033 20.0025 170 
173.227 20.0025 170 127.033 20.0025 180 173.227 20.0025 180 
129.343 24.003 170 175.536 24.003 170 129.343 24.003 180 
175.536 24.003 180 0 24.003 0 41.5744 24.003 0 
0 24.003 10 41.5744 24.003 10 2.30969 28.0035 0 
39.2647 28.0035 0 2.30969 28.0035 10 39.2647 28.0035 10 
0 24.003 10 41.5744 24.003 10 0 24.003 20 
41.5744 24.003 20 2.30969 28.0035 10 39.2647 28.0035 10 
2.30969 28.0035 20 39.2647 28.0035 20 0 24.003 20 
41.5744 24.003 20 0 24.003 30 41.5744 24.003 30 
2.30969 28.0035 20 39.2647 28.0035 20 2.30969 28.0035 30 
39.2647 28.0035 30 0 24.003 30 41.5744 24.003 30 
0 24.003 40 41.5744 24.003 40 2.30969 28.0035 30 
39.2647 28.0035 30 2.30969 28.0035 40 39.2647 28.0035 40 
0 24.003 40 41.5744 24.003 40 0 24.003 50 
41.5744 24.003 50 2.30969 28.0035 40 39.2647 28.0035 40 
2.30969 28.0035 50 39.2647 28.0035 50 0 24.003 50 
41.5744 24.003 50 0 24.003 60 41.5744 24.003 60 
2.30969 28.0035 50 39.2647 28.0035 50 2.30969 28.0035 60 
39.2647 28.0035 60 0 24.003 60 41.5744 24.003 60 
0 24.003 70 41.5744 24.003 70 2.30969 28.0035 60 
39.2647 28.0035 60 2.30969 28.0035 70 39.2647 28.0035 70 
0 24.003 70 41.5744 24.003 70 0 24.003 80 
41.5744 24.003 80 2.30969 28.0035 70 39.2647 28.0035 70 
2.30969 28.0035 80 39.2647 28.0035 80 0 24.003 80 
41.5744 24.003 80 0 24.003 90 41.5744 24.003 90 
2.30969 28.0035 80 39.2647 28.0035 80 2.30969 28.0035 90 
39.2647 28.0035 90 0 24.003 90 41.5744 24.003 90 
0 24.003 100 41.5744 24.003 100 2.30969 28.0035 90 
39.2647 28.0035 90 2.30969 28.0035 100 39.2647 28.0035 100 
0 24.003 100 41.5744 24.003 100 0 24.003 110 
41.5744 24.003 110 2.30969 28.0035 100 39.2647 28.0035 100 
2.30969 28.0035 110 39.2647 28.0035 110 0 24.003 110 
41.5744 24.003 110 0 24.003 120 41.5744 24.003 120 
2.30969 28.0035 110 39.2647 28.0035 110 2.30969 28.0035 120 
39.2647 28.0035 120 0 24.003 120 41.5744 24.003 120 
0 24.003 130 41.5744 24.003 130 2.30969 28.0035 120 
39.2647 28.0035 120 2.30969 28.0035 130 39.2647 28.0035 130 
0 24.003 130 41.5744 24.003 130 0 24.003 140 
41.5744 24.003 140 2.30969 28.0035 130 39.2647 28.0035 130 
2.30969 28.0035 140 39.2647 28.0035 140 0 24.003 140 
41.5744 24.003 140 0 24.003 150 41.5744 24.003 150 
2.30969 28.0035 140 39.2647 28.0035 140 2.30969 28.0035 150 
39.2647 28.0035 150 0 24.003 150 41.5744 24.003 150 
0 24.003 160 41.5744 24.003 160 2.30969 28.0035 150 
39.2647 28.0035 150 2.30969 28.0035 160 39.2647 28.0035 160 
0 24.003 160 41.5744 24.003 160 0 24.003 170 
41.5744 24.003 170 2.30969 28.0035 160 39.2647 28.0035 160 
2.30969 28.0035 170 39.2647 28.0035 170 0 24.003 170 
41.5744 24.003 170 0 24.003 180 41.5744 24.003 180 
2.30969 28.0035 170 39.2647 28.0035 170 2.30969 28.0035 180 
39.2647 28.0035 180 133.962 24.003 0 175.536 24.003 0 
133.962 24.003 10 175.536 24.003 10 136.272 28.0035 0 
173.227 28.0035 0 136.272 28.0035 10 173.227 28.0035 10 
133.962 24.003 10 175.536 24.003 10 133.962 24.003 20 
175.536 24.003 20 136.272 28.0035 10 173.227 28.0035 10 
136.272 28.0035 20 173.227 28.0035 20 133.962 24.003 20 
175.536 24.003 20 133.962 24.003 30 175.536 24.003 30 
136.272 28.0035 20 173.227 28.0035 20 136.272 28.0035 30 
173.227 28.0035 30 133.962 24.003 30 175.536 24.003 30 
133.962 24.003 40 175.536 24.003 40 136.272 28.0035 30 
173.227 28.0035 30 136.272 28.0035 40 173.227 28.0035 40 
133.962 24.003 40 175.536 24.003 40 133.962 24.003 50 
175.536 24.003 50 136.272 28.0035 40 173.227 28.0035 40 
136.272 28.0035 50 173.227 28.0035 50 133.962 24.003 50 
175.536 24.003 50 133.962 24.003 60 175.536 24.003 60 
136.272 28.0035 50 173.227 28.0035 50 136.272 28.0035 60 
173.227 28.0035 60 133.962 24.003 60 175.536 24.003 60 
133.962 24.003 70 175.536 24.003 70 136.272 28.0035 60 
173.227 28.0035 60 136.272 28.0035 70 173.227 28.0035 70 
133.962 24.003 70 175.536 24.003 70 133.962 24.003 80 
175.536 24.003 80 136.272 28.0035 70 173.227 28.0035 70 
136.272 28.0035 80 173.227 28.0035 80 133.962 24.003 80 
175.536 24.003 80 133.962 24.003 90 175.536 24.003 90 
136.272 28.0035 80 173.227 28.0035 80 136.272 28.0035 90 
173.227 28.0035 90 133.962 24.003 90 175.536 24.003 90 
133.962 24.003 100 175.536 24.003 100 136.272 28.0035 90 
173.227 28.0035 90 136.272 28.0035 100 173.227 28.0035 100 
133.962 24.003 100 175.536 24.003 100 133.962 24.003 110 
175.536 24.003 110 136.272 28.0035 100 173.227 28.0035 100 
136.272 28.0035 110 173.227 28.0035 110 133.962 24.003 110 
175.536 24.003 110 133.962 24.003 120 175.536 24.003 120 
136.272 28.0035 110 173.227 28.0035 110 136.272 28.0035 120 
173.227 28.0035 120 133.962 24.003 120 175.536 24.003 120 
133.962 24.003 130 175.536 24.003 130 136.272 28.0035 120 
173.227 28.0035 120 136.272 28.0035 130 173.227 28.0035 130 
133.962 24.003 130 175.536 24.003 130 133.962 24.003 140 
175.536 24.003 140 136.272 28.0035 130 173.227 28.0035 130 
136.272 28.0035 140 173.227 28.0035 140 133.962 24.003 140 
175.536 24.003 140 133.962 24.003 150 175.536 24.003 150 
136.272 28.0035 140 173.227 28.0035 140 136.272 28.0035 150 
173.227 28.0035 150 133.962 24.003 150 175.536 24.003 150 
133.962 24.003 160 175.536 24.003 160 136.272 28.0035 150 
173.227 28.0035 150 136.272 28.0035 160 173.227 28.0035 160 
133.962 24.003 160 175.536 24.003 160 133.962 24.003 170 
175.536 24.003 170 136.272 28.0035 160 173.227 28.0035 160 
136.272 28.0035 170 173.227 28.0035 170 133.962 24.003 170 
175.536 24.003 170 133.962 24.003 180 175.536 24.003 180 
136.272 28.0035 170 173.227 28.0035 170 136.272 28.0035 180 
173.227 28.0035 180 2.30969 28.0035 0 39.2647 28.0035 0 
2.30969 28.0035 10 39.2647 28.0035 10 0 32.004 0 
36.955 32.004 0 0 32.004 10 36.955 32.004 10 
2.30969 28.0035 10 39.2647 28.0035 10 2.30969 28.0035 20 
39.2647 28.0035 20 0 32.004 10 36.955 32.004 10 
0 32.004 20 36.955 32.004 20 2.30969 28.0035 20 
39.2647 28.0035 20 2.30969 28.0035 30 39.2647 28.0035 30 
0 32.004 20 36.955 32.004 20 0 32.004 30 
36.955 32.004 30 2.30969 28.0035 30 39.2647 28.0035 30 
2.30969 28.0035 40 39.2647 28.0035 40 0 32.004 30 
36.955 32.004 30 0 32.004 40 36.955 32.004 40 
2.30969 28.0035 40 39.2647 28.0035 40 2.30969 28.0035 50 
39.2647 28.0035 50 0 32.004 40 36.955 32.004 40 
0 32.004 50 36.955 32.004 50 2.30969 28.0035 50 
39.2647 28.0035 50 2.30969 28.0035 60 39.2647 28.0035 60 
0 32.004 50 36.955 32.004 50 0 32.004 60 
36.955 32.004 60 2.30969 28.0035 60 39.2647 28.0035 60 
2.30969 28.0035 70 39.2647 28.0035 70 0 32.004 60 
36.955 32.004 60 0 32.004 70 36.955 32.004 70 
2.30969 28.0035 70 39.2647 28.0035 70 2.30969 28.0035 80 
39.2647 28.0035 80 0 32.004 70 36.955 32.004 70 
0 32.004 80 36.955 32.004 80 2.30969 28.0035 80 
39.2647 28.0035 80 2.30969 28.0035 90 39.2647 28.0035 90 
0 32.004 80 36.955 32.004 80 0 32.004 90 
36.955 32.004 90 2.30969 28.0035 90 39.2647 28.0035 90 
2.30969 28.0035 100 39.2647 28.0035 100 0 32.004 90 
36.955 32.004 90 0 32.004 100 36.955 32.004 100 
2.30969 28.0035 100 39.2647 28.0035 100 2.30969 28.0035 110 
39.2647 28.0035 110 0 32.004 100 36.955 32.004 100 
0 32.004 110 36.955 32.004 110 2.30969 28.0035 110 
39.2647 28.0035 110 2.30969 28.0035 120 39.2647 28.0035 120 
0 32.004 110 36.955 32.004 110 0 32.004 120 
36.955 32.004 120 2.30969 28.0035 120 39.2647 28.0035 120 
2.30969 28.0035 130 39.2647 28.0035 130 0 32.004 120 
[...]
CELL_DATA 7506
SCALARS Canales float
LOOKUP_TABLE default
105 105 105 105 105 105 105 105 105 
105 105 105 105 105 105 105 105 105 
106 106 106 106 106 106 106 106 106 
106 106 106 106 106 106 106 106 106 
106 106 106 106 106 106 106 106 106 
106 106 106 106 106 106 106 106 106 
106 106 106 106 106 106 106 106 106 
106 106 106 106 106 106 106 106 106 
104 104 104 104 104 104 104 104 104 
104 104 104 104 104 104 104 104 104 
105 105 105 105 105 105 105 105 105 
105 105 105 105 105 105 105 105 105 
105 105 105 105 105 105 105 105 105 
105 105 105 105 105 105 105 105 105 
105 105 105 105 105 105 105 105 105 
105 105 105 105 105 105 105 105 105 
106 106 106 106 106 106 106 106 106 
106 106 106 106 106 106 106 106 106 
107 107 107 107 107 107 107 107 107 
107 107 107 107 107 107 107 107 107 
92 92 92 92 92 92 92 92 92 
92 92 92 92 92 92 92 92 92 
93 93 93 93 93 93 93 93 93 
93 93 93 93 93 93 93 93 93 
92 92 92 92 92 92 92 92 92 
92 92 92 92 92 92 92 92 92 
92 92 92 92 92 92 92 92 92 
92 92 92 92 92 92 92 92 92 
91 91 91 91 91 91 91 91 91 
91 91 91 91 91 91 91 91 91 
92 92 92 92 92 92 92 92 92 
92 92 92 92 92 92 92 92 92 
91 91 91 91 91 91 91 91 91 
91 91 91 91 91 91 91 91 91 
91 91 91 91 91 91 91 91 91 
91 91 91 91 91 91 91 91 91 
90 90 90 90 90 90 90 90 90 
90 90 90 90 90 90 90 90 90 
91 91 91 91 91 91 91 91 91 
91 91 91 91 91 91 91 91 91 
66 66 66 66 66 66 66 66 66 
66 66 66 66 66 66 66 66 66 
66 66 66 66 66 66 66 66 66 
66 66 66 66 66 66 66 66 66 
65 65 65 65 65 65 65 65 65 
65 65 65 65 65 65 65 65 65 
65 65 65 65 65 65 65 65 65 
65 65 65 65 65 65 65 65 65 
66 66 66 66 66 66 66 66 66 
66 66 66 66 66 66 66 66 66 
65 65 65 65 65 65 65 65 65 
65 65 65 65 65 65 65 65 65 
64 64 64 64 64 64 64 64 64 
64 64 64 64 64 64 64 64 64 
64 64 64 64 64 64 64 64 64 
64 64 64 64 64 64 64 64 64 
65 65 65 65 65 65 65 65 65 
65 65 65 65 65 65 65 65 65 
64 64 64 64 64 64 64 64 64 
64 64 64 64 64 64 64 64 64 
85 85 85 85 85 85 85 85 85 
85 85 85 85 85 85 85 85 85 
86 86 86 86 86 86 86 86 86 
86 86 86 86 86 86 86 86 86 
86 86 86 86 86 86 86 86 86 
86 86 86 86 86 86 86 86 86 
86 86 86 86 86 86 86 86 86 
86 86 86 86 86 86 86 86 86 
86 86 86 86 86 86 86 86 86 
86 86 86 86 86 86 86 86 86 
87 87 87 87 87 87 87 87 87 
87 87 87 87 87 87 87 87 87 
87 87 87 87 87 87 87 87 87 
87 87 87 87 87 87 87 87 87 
87 87 87 87 87 87 87 87 87 
87 87 87 87 87 87 87 87 87 
87 87 87 87 87 87 87 87 87 
87 87 87 87 87 87 87 87 87 
88 88 88 88 88 88 88 88 88 
88 88 88 88 88 88 88 88 88 
36 36 36 36 36 36 36 36 36 
36 36 36 36 36 36 36 36 36 
37 37 37 37 37 37 37 37 37 
37 37 37 37 37 37 37 37 37 
34 34 34 34 34 34 34 34 34 
34 34 34 34 34 34 34 34 34 
35 35 35 35 35 35 35 35 35 
35 35 35 35 35 35 35 35 35 
34 34 34 34 34 34 34 34 34 
34 34 34 34 34 34 34 34 34 
34 34 34 34 34 34 34 34 34 
34 34 34 34 34 34 34 34 34 
36 36 36 36 36 36 36 36 36 
36 36 36 36 36 36 36 36 36 
36 36 36 36 36 36 36 36 36 
36 36 36 36 36 36 36 36 36 
35 35 35 35 35 35 35 35 35 
35 35 35 35 35 35 35 35 35 
35 35 35 35 35 35 35 35 35 
35 35 35 35 35 35 35 35 35 
13 13 13 13 13 13 13 13 13 
13 13 13 13 13 13 13 13 13 
13 13 13 13 13 13 13 13 13 
13 13 13 13 13 13 13 13 13 
11 11 11 11 11 11 11 11 11 
11 11 11 11 11 11 11 11 11 
11 11 11 11 11 11 11 11 11 
11 11 11 11 11 11 11 11 11 
11 11 11 11 11 11 11 11 11 
11 11 11 11 11 11 11 11 11 
10 10 10 10 10 10 10 10 10 
10 10 10 10 10 10 10 10 10 
13 13 13 13 13 13 13 13 13 
13 13 13 13 13 13 13 13 13 
12 12 12 12 12 12 12 12 12 
12 12 12 12 12 12 12 12 12 
12 12 12 12 12 12 12 12 12 
12 12 12 12 12 12 12 12 12 
12 12 12 12 12 12 12 12 12 
12 12 12 12 12 12 12 12 12 
104 104 104 104 104 104 104 104 104 
104 104 104 104 104 104 104 104 104 
104 104 104 104 104 104 104 104 104 
104 104 104 104 104 104 104 104 104 
102 102 102 102 102 102 102 102 102 
102 102 102 102 102 102 102 102 102 
101 101 101 101 101 101 101 101 101 
101 101 101 101 101 101 101 101 101 
104 104 104 104 104 104 104 104 104 
104 104 104 104 104 104 104 104 104 
103 103 103 103 103 103 103 103 103 
103 103 103 103 103 103 103 103 103 
101 101 101 101 101 101 101 101 101 
101 101 101 101 101 101 101 101 101 
100 100 100 100 100 100 100 100 100 
100 100 100 100 100 100 100 100 100 
101 101 101 101 101 101 101 101 101 
101 101 101 101 101 101 101 101 101 
101 101 101 101 101 101 101 101 101 
101 101 101 101 101 101 101 101 101 
2 2 2 2 2 2 2 2 2 
2 2 2 2 2 2 2 2 2 
33 33 33 33 33 33 33 33 33 
33 33 33 33 33 33 33 33 33 
33 33 33 33 33 33 33 33 33 
33 33 33 33 33 33 33 33 33 
31 31 31 31 31 31 31 31 31 
31 31 31 31 31 31 31 31 31 
30 30 30 30 30 30 30 30 30 
30 30 30 30 30 30 30 30 30 
31 31 31 31 31 31 31 31 31 
31 31 31 31 31 31 31 31 31 
31 31 31 31 31 31 31 31 31 
31 31 31 31 31 31 31 31 31 
32 32 32 32 32 32 32 32 32 
32 32 32 32 32 32 32 32 32 
32 32 32 32 32 32 32 32 32 
32 32 32 32 32 32 32 32 32 
33 33 33 33 33 33 33 33 33 
33 33 33 33 33 33 33 33 33 
32 32 32 32 32 32 32 32 32 
32 32 32 32 32 32 32 32 32 
76 76 76 76 76 76 76 76 76 
76 76 76 76 76 76 76 76 76 
76 76 76 76 76 76 76 76 76 
76 76 76 76 76 76 76 76 76 
75 75 75 75 75 75 75 75 75 
75 75 75 75 75 75 75 75 75 
75 75 75 75 75 75 75 75 75 
75 75 75 75 75 75 75 75 75 
75 75 75 75 75 75 75 75 75 
75 75 75 75 75 75 75 75 75 
76 76 76 76 76 76 76 76 76 
76 76 76 76 76 76 76 76 76 
74 74 74 74 74 74 74 74 74 
74 74 74 74 74 74 74 74 74 
74 74 74 74 74 74 74 74 74 
74 74 74 74 74 74 74 74 74 
74 74 74 74 74 74 74 74 74 
74 74 74 74 74 74 74 74 74 
75 75 75 75 75 75 75 75 75 
75 75 75 75 75 75 75 75 75 
1 1 1 1 1 1 1 1 1 
1 1 1 1 1 1 1 1 1 
49 49 49 49 49 49 49 49 49 
49 49 49 49 49 49 49 49 49 
49 49 49 49 49 49 49 49 49 
49 49 49 49 49 49 49 49 49 
48 48 48 48 48 48 48 48 48 
48 48 48 48 48 48 48 48 48 
49 49 49 49 49 49 49 49 49 
49 49 49 49 49 49 49 49 49 
48 48 48 48 48 48 48 48 48 
48 48 48 48 48 48 48 48 48 
48 48 48 48 48 48 48 48 48 
48 48 48 48 48 48 48 48 48 
47 47 47 47 47 47 47 47 47 
47 47 47 47 47 47 47 47 47 
47 47 47 47 47 47 47 47 47 
47 47 47 47 47 47 47 47 47 
50 50 50 50 50 50 50 50 50 
50 50 50 50 50 50 50 50 50 
50 50 50 50 50 50 50 50 50 
50 50 50 50 50 50 50 50 50 
45 45 45 45 45 45 45 45 45 
45 45 45 45 45 45 45 45 45 
44 44 44 44 44 44 44 44 44 
44 44 44 44 44 44 44 44 44 
44 44 44 44 44 44 44 44 44 
44 44 44 44 44 44 44 44 44 
44 44 44 44 44 44 44 44 44 
44 44 44 44 44 44 44 44 44 
46 46 46 46 46 46 46 46 46 
46 46 46 46 46 46 46 46 46 
46 46 46 46 46 46 46 46 46 
46 46 46 46 46 46 46 46 46 
45 45 45 45 45 45 45 45 45 
45 45 45 45 45 45 45 45 45 
45 45 45 45 45 45 45 45 45 
45 45 45 45 45 45 45 45 45 
47 47 47 47 47 47 47 47 47 
47 47 47 47 47 47 47 47 47 
46 46 46 46 46 46 46 46 46 
46 46 46 46 46 46 46 46 46 
8 8 8 8 8 8 8 8 8 
8 8 8 8 8 8 8 8 8 
9 9 9 9 9 9 9 9 9 
9 9 9 9 9 9 9 9 9 
9 9 9 9 9 9 9 9 9 
9 9 9 9 9 9 9 9 9 
9 9 9 9 9 9 9 9 9 
9 9 9 9 9 9 9 9 9 
7 7 7 7 7 7 7 7 7 
7 7 7 7 7 7 7 7 7 
7 7 7 7 7 7 7 7 7 
7 7 7 7 7 7 7 7 7 
8 8 8 8 8 8 8 8 8 
8 8 8 8 8 8 8 8 8 
8 8 8 8 8 8 8 8 8 
8 8 8 8 8 8 8 8 8 
10 10 10 10 10 10 10 10 10 
10 10 10 10 10 10 10 10 10 
10 10 10 10 10 10 10 10 10 
10 10 10 10 10 10 10 10 10 
121 121 121 121 121 121 121 121 121 
121 121 121 121 121 121 121 121 121 
121 121 121 121 121 121 121 121 121 
121 121 121 121 121 121 121 121 121 
121 121 121 121 121 121 121 121 121 
121 121 121 121 121 121 121 121 121 
120 120 120 120 120 120 120 120 120 
120 120 120 120 120 120 120 120 120 
120 120 120 120 120 120 120 120 120 
120 120 120 120 120 120 120 120 120 
120 120 120 120 120 120 120 120 120 
120 120 120 120 120 120 120 120 120 
120 120 120 120 120 120 120 120 120 
120 120 120 120 120 120 120 120 120 
119 119 119 119 119 119 119 119 119 
119 119 119 119 119 119 119 119 119 
122 122 122 122 122 122 122 122 122 
122 122 122 122 122 122 122 122 122 
121 121 121 121 121 121 121 121 121 
121 121 121 121 121 121 121 121 121 
114 114 114 114 114 114 114 114 114 
114 114 114 114 114 114 114 114 114 
114 114 114 114 114 114 114 114 114 
114 114 114 114 114 114 114 114 114 
112 112 112 112 112 112 112 112 112 
112 112 112 112 112 112 112 112 112 
112 112 112 112 112 112 112 112 112 
112 112 112 112 112 112 112 112 112 
113 113 113 113 113 113 113 113 113 
113 113 113 113 113 113 113 113 113 
112 112 112 112 112 112 112 112 112 
112 112 112 112 112 112 112 112 112 
113 113 113 113 113 113 113 113 113 
113 113 113 113 113 113 113 113 113 
113 113 113 113 113 113 113 113 113 
113 113 113 113 113 113 113 113 113 
114 114 114 114 114 114 114 114 114 
114 114 114 114 114 114 114 114 114 
113 113 113 113 113 113 113 113 113 
113 113 113 113 113 113 113 113 113 
118 118 118 118 118 118 118 118 118 
118 118 118 118 118 118 118 118 118 
117 117 117 117 117 117 117 117 117 
117 117 117 117 117 117 117 117 117 
117 117 117 117 117 117 117 117 117 
117 117 117 117 117 117 117 117 117 
30 30 30 30 30 30 30 30 30 
30 30 30 30 30 30 30 30 30 
119 119 119 119 119 119 119 119 119 
119 119 119 119 119 119 119 119 119 
118 118 118 118 118 118 118 118 118 
118 118 118 118 118 118 118 118 118 
118 118 118 118 118 118 118 118 118 
118 118 118 118 118 118 118 118 118 
118 118 118 118 118 118 118 118 118 
118 118 118 118 118 118 118 118 118 
28 28 28 28 28 28 28 28 28 
28 28 28 28 28 28 28 28 28 
28 28 28 28 28 28 28 28 28 
28 28 28 28 28 28 28 28 28 
119 119 119 119 119 119 119 119 119 
119 119 119 119 119 119 119 119 119 
27 27 27 27 27 27 27 27 27 
27 27 27 27 27 27 27 27 27 
29 29 29 29 29 29 29 29 29 
29 29 29 29 29 29 29 29 29 
29 29 29 29 29 29 29 29 29 
29 29 29 29 29 29 29 29 29 
28 28 28 28 28 28 28 28 28 
28 28 28 28 28 28 28 28 28 
29 29 29 29 29 29 29 29 29 
29 29 29 29 29 29 29 29 29 
3 3 3 3 3 3 3 3 3 
3 3 3 3 3 3 3 3 3 
78 78 78 78 78 78 78 78 78 
78 78 78 78 78 78 78 78 78 
77 77 77 77 77 77 77 77 77 
77 77 77 77 77 77 77 77 77 
78 78 78 78 78 78 78 78 78 
78 78 78 78 78 78 78 78 78 
78 78 78 78 78 78 78 78 78 
78 78 78 78 78 78 78 78 78 
77 77 77 77 77 77 77 77 77 
77 77 77 77 77 77 77 77 77 
76 76 76 76 76 76 76 76 76 
76 76 76 76 76 76 76 76 76 
77 77 77 77 77 77 77 77 77 
77 77 77 77 77 77 77 77 77 
77 77 77 77 77 77 77 77 77 
77 77 77 77 77 77 77 77 77 
79 79 79 79 79 79 79 79 79 
79 79 79 79 79 79 79 79 79 
78 78 78 78 78 78 78 78 78 
78 78 78 78 78 78 78 78 78 
60 60 60 60 60 60 60 60 60 
60 60 60 60 60 60 60 60 60 
60 60 60 60 60 60 60 60 60 
60 60 60 60 60 60 60 60 60 
59 59 59 59 59 59 59 59 59 
59 59 59 59 59 59 59 59 59 
59 59 59 59 59 59 59 59 59 
59 59 59 59 59 59 59 59 59 
59 59 59 59 59 59 59 59 59 
59 59 59 59 59 59 59 59 59 
58 58 58 58 58 58 58 58 58 
58 58 58 58 58 58 58 58 58 
58 58 58 58 58 58 58 58 58 
58 58 58 58 58 58 58 58 58 
58 58 58 58 58 58 58 58 58 
58 58 58 58 58 58 58 58 58 
57 57 57 57 57 57 57 57 57 
57 57 57 57 57 57 57 57 57 
57 57 57 57 57 57 57 57 57 
57 57 57 57 57 57 57 57 57 
61 61 61 61 61 61 61 61 61 
61 61 61 61 61 61 61 61 61 
61 61 61 61 61 61 61 61 61 
61 61 61 61 61 61 61 61 61 
60 60 60 60 60 60 60 60 60 
60 60 60 60 60 60 60 60 60 
61 61 61 61 61 61 61 61 61 
61 61 61 61 61 61 61 61 61 
63 63 63 63 63 63 63 63 63 
63 63 63 63 63 63 63 63 63 
63 63 63 63 63 63 63 63 63 
63 63 63 63 63 63 63 63 63 
62 62 62 62 62 62 62 62 62 
62 62 62 62 62 62 62 62 62 
63 63 63 63 63 63 63 63 63 
63 63 63 63 63 63 63 63 63 
63 63 63 63 63 63 63 63 63 
63 63 63 63 63 63 63 63 63 
64 64 64 64 64 64 64 64 64 
64 64 64 64 64 64 64 64 64 
4 4 4 4 4 4 4 4 4 
4 4 4 4 4 4 4 4 4 
4 4 4 4 4 4 4 4 4 
4 4 4 4 4 4 4 4 4 
5 5 5 5 5 5 5 5 5 
5 5 5 5 5 5 5 5 5 
4 4 4 4 4 4 4 4 4 
4 4 4 4 4 4 4 4 4 
5 5 5 5 5 5 5 5 5 
5 5 5 5 5 5 5 5 5 
5 5 5 5 5 5 5 5 5 
5 5 5 5 5 5 5 5 5 
6 6 6 6 6 6 6 6 6 
6 6 6 6 6 6 6 6 6 
6 6 6 6 6 6 6 6 6 
6 6 6 6 6 6 6 6 6 
7 7 7 7 7 7 7 7 7 
7 7 7 7 7 7 7 7 7 
6 6 6 6 6 6 6 6 6 
6 6 6 6 6 6 6 6 6 
21 21 21 21 21 21 21 21 21 
21 21 21 21 21 21 21 21 21 
98 98 98 98 98 98 98 98 98 
98 98 98 98 98 98 98 98 98 
99 99 99 99 99 99 99 99 99 
99 99 99 99 99 99 99 99 99 
98 98 98 98 98 98 98 98 98 
98 98 98 98 98 98 98 98 98 
98 98 98 98 98 98 98 98 98 
98 98 98 98 98 98 98 98 98 
99 99 99 99 99 99 99 99 99 
99 99 99 99 99 99 99 99 99 
100 100 100 100 100 100 100 100 100 
100 100 100 100 100 100 100 100 100 
99 99 99 99 99 99 99 99 99 
99 99 99 99 99 99 99 99 99 
99 99 99 99 99 99 99 99 99 
99 99 99 99 99 99 99 99 99 
100 100 100 100 100 100 100 100 100 
100 100 100 100 100 100 100 100 100 
100 100 100 100 100 100 100 100 100 
100 100 100 100 100 100 100 100 100 
67 67 67 67 67 67 67 67 67 
67 67 67 67 67 67 67 67 67 
66 66 66 66 66 66 66 66 66 
66 66 66 66 66 66 66 66 66 
67 67 67 67 67 67 67 67 67 
67 67 67 67 67 67 67 67 67 
67 67 67 67 67 67 67 67 67 
67 67 67 67 67 67 67 67 67 
68 68 68 68 68 68 68 68 68 
68 68 68 68 68 68 68 68 68 
67 67 67 67 67 67 67 67 67 
67 67 67 67 67 67 67 67 67 
68 68 68 68 68 68 68 68 68 
68 68 68 68 68 68 68 68 68 
68 68 68 68 68 68 68 68 68 
68 68 68 68 68 68 68 68 68 
69 69 69 69 69 69 69 69 69 
69 69 69 69 69 69 69 69 69 
68 68 68 68 68 68 68 68 68 
68 68 68 68 68 68 68 68 68 
26 26 26 26 26 26 26 26 26 
26 26 26 26 26 26 26 26 26 
26 26 26 26 26 26 26 26 26 
26 26 26 26 26 26 26 26 26 
25 25 25 25 25 25 25 25 25 
25 25 25 25 25 25 25 25 25 
25 25 25 25 25 25 25 25 25 
25 25 25 25 25 25 25 25 25 
25 25 25 25 25 25 25 25 25 
25 25 25 25 25 25 25 25 25 
24 24 24 24 24 24 24 24 24 
24 24 24 24 24 24 24 24 24 
24 24 24 24 24 24 24 24 24 
24 24 24 24 24 24 24 24 24 
24 24 24 24 24 24 24 24 24 
24 24 24 24 24 24 24 24 24 
27 27 27 27 27 27 27 27 27 
27 27 27 27 27 27 27 27 27 
26 26 26 26 26 26 26 26 26 
26 26 26 26 26 26 26 26 26 
1 1 1 1 1 1 1 1 1 
1 1 1 1 1 1 1 1 1 
3 3 3 3 3 3 3 3 3 
3 3 3 3 3 3 3 3 3 
23 23 23 23 23 23 23 23 23 
23 23 23 23 23 23 23 23 23 
40 40 40 40 40 40 40 40 40 
40 40 40 40 40 40 40 40 40 
41 41 41 41 41 41 41 41 41 
41 41 41 41 41 41 41 41 41 
41 41 41 41 41 41 41 41 41 
41 41 41 41 41 41 41 41 41 
41 41 41 41 41 41 41 41 41 
41 41 41 41 41 41 41 41 41 
42 42 42 42 42 42 42 42 42 
42 42 42 42 42 42 42 42 42 
42 42 42 42 42 42 42 42 42 
42 42 42 42 42 42 42 42 42 
42 42 42 42 42 42 42 42 42 
42 42 42 42 42 42 42 42 42 
43 43 43 43 43 43 43 43 43 
43 43 43 43 43 43 43 43 43 
43 43 43 43 43 43 43 43 43 
43 43 43 43 43 43 43 43 43 
43 43 43 43 43 43 43 43 43 
43 43 43 43 43 43 43 43 43 
123 123 123 123 123 123 123 123 123 
123 123 123 123 123 123 123 123 123 
123 123 123 123 123 123 123 123 123 
123 123 123 123 123 123 123 123 123 
123 123 123 123 123 123 123 123 123 
123 123 123 123 123 123 123 123 123 
124 124 124 124 124 124 124 124 124 
124 124 124 124 124 124 124 124 124 
122 122 122 122 122 122 122 122 122 
122 122 122 122 122 122 122 122 122 
122 122 122 122 122 122 122 122 122 
122 122 122 122 122 122 122 122 122 
122 122 122 122 122 122 122 122 122 
122 122 122 122 122 122 122 122 122 
123 123 123 123 123 123 123 123 123 
123 123 123 123 123 123 123 123 123 
98 98 98 98 98 98 98 98 98 
98 98 98 98 98 98 98 98 98 
97 97 97 97 97 97 97 97 97 
97 97 97 97 97 97 97 97 97 
96 96 96 96 96 96 96 96 96 
96 96 96 96 96 96 96 96 96 
96 96 96 96 96 96 96 96 96 
96 96 96 96 96 96 96 96 96 
96 96 96 96 96 96 96 96 96 
96 96 96 96 96 96 96 96 96 
95 95 95 95 95 95 95 95 95 
95 95 95 95 95 95 95 95 95 
97 97 97 97 97 97 97 97 97 
97 97 97 97 97 97 97 97 97 
97 97 97 97 97 97 97 97 97 
97 97 97 97 97 97 97 97 97 
97 97 97 97 97 97 97 97 97 
97 97 97 97 97 97 97 97 97 
96 96 96 96 96 96 96 96 96 
96 96 96 96 96 96 96 96 96 
1 1 1 1 1 1 1 1 1 
1 1 1 1 1 1 1 1 1 
111 111 111 111 111 111 111 111 111 
111 111 111 111 111 111 111 111 111 
112 112 112 112 112 112 112 112 112 
112 112 112 112 112 112 112 112 112 
111 111 111 111 111 111 111 111 111 
111 111 111 111 111 111 111 111 111 
111 111 111 111 111 111 111 111 111 
111 111 111 111 111 111 111 111 111 
110 110 110 110 110 110 110 110 110 
110 110 110 110 110 110 110 110 110 
111 111 111 111 111 111 111 111 111 
111 111 111 111 111 111 111 111 111 
110 110 110 110 110 110 110 110 110 
110 110 110 110 110 110 110 110 110 
110 110 110 110 110 110 110 110 110 
110 110 110 110 110 110 110 110 110 
109 109 109 109 109 109 109 109 109 
109 109 109 109 109 109 109 109 109 
110 110 110 110 110 110 110 110 110 
110 110 110 110 110 110 110 110 110 
114 114 114 114 114 114 114 114 114 
114 114 114 114 114 114 114 114 114 
115 115 115 115 115 115 115 115 115 
115 115 115 115 115 115 115 115 115 
115 115 115 115 115 115 115 115 115 
115 115 115 115 115 115 115 115 115 
115 115 115 115 115 115 115 115 115 
115 115 115 115 115 115 115 115 115 
115 115 115 115 115 115 115 115 115 
115 115 115 115 115 115 115 115 115 
116 116 116 116 116 116 116 116 116 
116 116 116 116 116 116 116 116 116 
116 116 116 116 116 116 116 116 116 
116 116 116 116 116 116 116 116 116 
116 116 116 116 116 116 116 116 116 
116 116 116 116 116 116 116 116 116 
116 116 116 116 116 116 116 116 116 
116 116 116 116 116 116 116 116 116 
117 117 117 117 117 117 117 117 117 
117 117 117 117 117 117 117 117 117 
20 20 20 20 20 20 20 20 20 
20 20 20 20 20 20 20 20 20 
21 21 21 21 21 21 21 21 21 
21 21 21 21 21 21 21 21 21 
82 82 82 82 82 82 82 82 82 
82 82 82 82 82 82 82 82 82 
83 83 83 83 83 83 83 83 83 
83 83 83 83 83 83 83 83 83 
22 22 22 22 22 22 22 22 22 
22 22 22 22 22 22 22 22 22 
22 22 22 22 22 22 22 22 22 
22 22 22 22 22 22 22 22 22 
22 22 22 22 22 22 22 22 22 
22 22 22 22 22 22 22 22 22 
23 23 23 23 23 23 23 23 23 
23 23 23 23 23 23 23 23 23 
79 79 79 79 79 79 79 79 79 
79 79 79 79 79 79 79 79 79 
23 23 23 23 23 23 23 23 23 
23 23 23 23 23 23 23 23 23 
79 79 79 79 79 79 79 79 79 
79 79 79 79 79 79 79 79 79 
79 79 79 79 79 79 79 79 79 
79 79 79 79 79 79 79 79 79 
80 80 80 80 80 80 80 80 80 
80 80 80 80 80 80 80 80 80 
81 81 81 81 81 81 81 81 81 
81 81 81 81 81 81 81 81 81 
80 80 80 80 80 80 80 80 80 
80 80 80 80 80 80 80 80 80 
80 80 80 80 80 80 80 80 80 
80 80 80 80 80 80 80 80 80 
56 56 56 56 56 56 56 56 56 
56 56 56 56 56 56 56 56 56 
57 57 57 57 57 57 57 57 57 
57 57 57 57 57 57 57 57 57 
55 55 55 55 55 55 55 55 55 
55 55 55 55 55 55 55 55 55 
55 55 55 55 55 55 55 55 55 
55 55 55 55 55 55 55 55 55 
56 56 56 56 56 56 56 56 56 
56 56 56 56 56 56 56 56 56 
56 56 56 56 56 56 56 56 56 
56 56 56 56 56 56 56 56 56 
54 54 54 54 54 54 54 54 54 
54 54 54 54 54 54 54 54 54 
54 54 54 54 54 54 54 54 54 
54 54 54 54 54 54 54 54 54 
54 54 54 54 54 54 54 54 54 
54 54 54 54 54 54 54 54 54 
55 55 55 55 55 55 55 55 55 
55 55 55 55 55 55 55 55 55 
3 3 3 3 3 3 3 3 3 
3 3 3 3 3 3 3 3 3 
109 109 109 109 109 109 109 109 109 
109 109 109 109 109 109 109 109 109 
108 108 108 108 108 108 108 108 108 
108 108 108 108 108 108 108 108 108 
108 108 108 108 108 108 108 108 108 
108 108 108 108 108 108 108 108 108 
108 108 108 108 108 108 108 108 108 
108 108 108 108 108 108 108 108 108 
108 108 108 108 108 108 108 108 108 
108 108 108 108 108 108 108 108 108 
107 107 107 107 107 107 107 107 107 
107 107 107 107 107 107 107 107 107 
107 107 107 107 107 107 107 107 107 
107 107 107 107 107 107 107 107 107 
107 107 107 107 107 107 107 107 107 
107 107 107 107 107 107 107 107 107 
109 109 109 109 109 109 109 109 109 
109 109 109 109 109 109 109 109 109 
109 109 109 109 109 109 109 109 109 
109 109 109 109 109 109 109 109 109 
70 70 70 70 70 70 70 70 70 
70 70 70 70 70 70 70 70 70 
71 71 71 71 71 71 71 71 71 
71 71 71 71 71 71 71 71 71 
70 70 70 70 70 70 70 70 70 
70 70 70 70 70 70 70 70 70 
70 70 70 70 70 70 70 70 70 
70 70 70 70 70 70 70 70 70 
69 69 69 69 69 69 69 69 69 
69 69 69 69 69 69 69 69 69 
70 70 70 70 70 70 70 70 70 
70 70 70 70 70 70 70 70 70 
69 69 69 69 69 69 69 69 69 
69 69 69 69 69 69 69 69 69 
69 69 69 69 69 69 69 69 69 
69 69 69 69 69 69 69 69 69 
71 71 71 71 71 71 71 71 71 
71 71 71 71 71 71 71 71 71 
71 71 71 71 71 71 71 71 71 
71 71 71 71 71 71 71 71 71 
90 90 90 90 90 90 90 90 90 
90 90 90 90 90 90 90 90 90 
90 90 90 90 90 90 90 90 90 
90 90 90 90 90 90 90 90 90 
2 2 2 2 2 2 2 2 2 
2 2 2 2 2 2 2 2 2 
88 88 88 88 88 88 88 88 88 
88 88 88 88 88 88 88 88 88 
88 88 88 88 88 88 88 88 88 
88 88 88 88 88 88 88 88 88 
89 89 89 89 89 89 89 89 89 
89 89 89 89 89 89 89 89 89 
88 88 88 88 88 88 88 88 88 